% Model:              Test 1D axisymetric devoir 2 v2.mph
% Version:            COMSOL 6.0.0.312
% Date:               Oct 28 2022, 16:18
% Dimension:          1
% Nodes:              1501
% Expressions:        1
% Description:        Line graph
% Maillage Plus fin (500 éléments sur l'intervalle)
% Pas de temps temporel: 1 an (31536000)
% Fin du temps: 1e10s (317 ans environ)
% Discrétisation quadratique de la concentration
% R                       Concentration
0                         1.7948093996299639
3.3333333333333327E-4     1.7948113938506702
6.666666666666665E-4      1.79481737656065
9.999999999999998E-4      1.7948273477599042
0.001333333333333333      1.794841307470522
0.0016666666666666663     1.7948592557882277
0.0019999999999999996     1.794881192713022
0.002333333333333333      1.7949071183285885
0.0026666666666666657     1.7949370327904568
0.002999999999999999      1.7949709360986275
0.0033333333333333322     1.7950088283966728
0.0036666666666666653     1.7950507098999746
0.003999999999999998      1.7950965806085335
0.004333333333333331      1.7951464407257682
0.0046666666666666645     1.795200290526908
0.0049999999999999975     1.7952581300119532
0.0053333333333333306     1.7953199594441696
0.005666666666666664      1.7953857791586403
0.005999999999999997      1.795455589155366
0.00633333333333333       1.7955293897574653
0.006666666666666663      1.7956071813598848
0.006999999999999996      1.7956889639626252
0.007333333333333329      1.7957747379486697
0.007666666666666662      1.7958645037728402
0.007999999999999995      1.7959582614351373
0.008333333333333328      1.7960560113784212
0.008666666666666661      1.7961577541174047
0.008999999999999994      1.796263489652088
0.009333333333333327      1.7963732184852228
0.00966666666666666       1.7964869411914293
0.009999999999999993      1.7966046577707078
0.010333333333333326      1.7967263687857187
0.01066666666666666       1.796852074871008
0.010999999999999992      1.796981776026576
0.011333333333333325      1.7971154728750112
0.011666666666666659      1.797253166110806
0.011999999999999992      1.7973948557339612
0.012333333333333325      1.7975405424270132
0.012666666666666656      1.7976902269444248
0.01299999999999999       1.7978439092861966
0.013333333333333324      1.7980015901948365
0.013666666666666657      1.7981632704848025
0.01399999999999999       1.7983289501560944
0.014333333333333323      1.798498630011217
0.014666666666666654      1.7986723109246494
0.014999999999999989      1.7988499928963926
0.015333333333333322      1.799031676788974
0.015666666666666655      1.7992173635369237
0.015999999999999986      1.7994070531402422
0.01633333333333332       1.79960074652151
0.016666666666666653      1.799798444675338
0.016999999999999984      1.8000001476017269
0.01733333333333332       1.800205856283341
0.01766666666666665       1.8004155717749053
0.01799999999999998       1.8006292940764204
0.018333333333333313      1.8008470242306667
0.018666666666666647      1.8010687633525198
0.01899999999999998       1.8012945114419798
0.019333333333333313      1.8015242696019782
0.019666666666666645      1.801758039007576
0.019999999999999976      1.8019958196587742
0.020333333333333307      1.802237612718693
0.02066666666666664       1.8024834194226185
0.020999999999999974      1.8027332397705513
0.02133333333333331       1.8029870749858397
0.02166666666666664       1.803244926364035
0.02199999999999997       1.8035067939051381
0.022333333333333306      1.8037726788927657
0.022666666666666637      1.8040425826827786
0.02299999999999997       1.8043165052751775
0.023333333333333303      1.804594448013891
0.023666666666666634      1.804876412315133
0.023999999999999966      1.805162398178905
0.0243333333333333        1.8054524070094917
0.024666666666666632      1.8057464402835086
0.024999999999999963      1.806044498000956
0.025333333333333298      1.8063465816265236
0.02566666666666663       1.806652692697276
0.02599999999999996       1.8069628312132133
0.026333333333333292      1.8072769986994792
0.026666666666666623      1.807595196753638
0.026999999999999958      1.80791742537569
0.027333333333333293      1.8082436861512827
0.027666666666666624      1.808573980738535
0.027999999999999955      1.808908309137447
0.02833333333333329       1.809246672994223
0.028666666666666618      1.80958907402759
0.028999999999999953      1.8099355122375491
0.029333333333333288      1.8102859893309164
0.02966666666666662       1.8106405070870857
0.02999999999999995       1.8109990655060568
0.030333333333333285      1.811361666355316
0.030666666666666616      1.8117283114749814
0.030999999999999948      1.8120990008650533
0.03133333333333328       1.8124737363537469
0.031666666666666614      1.8128525198419654
0.031999999999999945      1.8132353513297097
0.03233333333333328       1.8136222327059845
0.032666666666666615      1.8140131659325427
0.032999999999999946      1.8144081510093848
0.033333333333333284      1.8148071898863687
0.033666666666666616      1.8152102845861613
0.03399999999999995       1.8156174351087633
0.034333333333333285      1.8160286434649509
0.03466666666666661       1.8164439117383728
0.03499999999999995       1.8168632399290294
0.035333333333333286      1.8172866301086827
0.03566666666666662       1.8177140844220316
0.03599999999999995       1.8181456028690766
0.03633333333333329       1.8185811875826359
0.03666666666666662       1.8190208407685287
0.03699999999999995       1.8194645624267562
0.03733333333333329       1.8199123547512626
0.03766666666666661       1.8203642200090635
0.03799999999999995       1.820820158200159
0.03833333333333329       1.8212801715796934
0.03866666666666662       1.821744262475953
0.03899999999999995       1.8222124308889376
0.03933333333333329       1.822684679135067
0.03966666666666662       1.823161009603975
0.03999999999999995       1.8236414222956618
0.04033333333333329       1.824125919587901
0.040666666666666615      1.8246145039317516
0.04099999999999995       1.825107175327215
0.04133333333333329       1.8256039362134968
0.04166666666666662       1.8261047891031659
0.041999999999999954      1.8266097339962226
0.04233333333333329       1.8271187733933862
0.042666666666666624      1.827631909868819
0.042999999999999955      1.8281491434225208
0.04333333333333329       1.8286704766168083
0.04366666666666662       1.8291959120875219
0.043999999999999956      1.8297254498346613
0.044333333333333294      1.830259092482227
0.044666666666666625      1.8307968427278245
0.04499999999999996       1.8313387005714534
0.045333333333333295      1.8318846686988863
0.045666666666666626      1.8324347498695825
0.04599999999999996       1.8329889440835423
0.046333333333333296      1.8335472540883995
0.04666666666666662       1.8341096827055605
0.04699999999999996       1.834676229935025
0.0473333333333333        1.83524689858638
0.04766666666666663       1.8358216915430727
0.04799999999999996       1.8364006088051035
0.0483333333333333        1.8369836532441057
0.04866666666666662       1.8375708278056626
0.04899999999999996       1.8381621324897752
0.0493333333333333        1.83875757023022
0.04966666666666662       1.8393571440348153
0.04999999999999996       1.8399608539035606
0.0503333333333333        1.8405687028324746
0.05066666666666663       1.8411806938917104
0.05099999999999996       1.8417968270812675
0.0513333333333333        1.8424171054595055
0.051666666666666625      1.8430415321590146
0.05199999999999996       1.8436701071797945
0.0523333333333333        1.8443028336426486
0.052666666666666626      1.844939714742707
0.052999999999999964      1.8455807504799704
0.0533333333333333        1.84622594403779
0.05366666666666663       1.8468752986739432
0.053999999999999965      1.847528814388431
0.0543333333333333        1.8481864944272588
0.05466666666666663       1.8488483421109603
0.054999999999999966      1.8495143574395356
0.055333333333333304      1.8501845437217534
0.05566666666666663       1.8508589043410142
0.055999999999999966      1.8515374392973178
0.056333333333333305      1.852220151962307
0.056666666666666636      1.8529070457823598
0.05699999999999997       1.8535981207574772
0.057333333333333306      1.8542933803222883
0.05766666666666663       1.8549928279862653
0.05799999999999997       1.8556964637494082
0.058333333333333307      1.8564042911094476
0.05866666666666663       1.8571163136390658
0.05899999999999997       1.8578325313382638
0.05933333333333331       1.8585529477679898
0.05966666666666664       1.8592775665642556
0.05999999999999997       1.860006387727062
0.06033333333333331       1.8607394148806946
0.06066666666666663       1.8614766517246162
0.06099999999999997       1.862218098258827
0.06133333333333331       1.8629637581710714
0.061666666666666634      1.8637136352243855
0.06199999999999997       1.8644677294187697
0.06233333333333331       1.8652260445055504
0.06266666666666665       1.8659885843114625
0.06299999999999997       1.866755348836506
0.06333333333333331       1.867526341895715
0.06366666666666664       1.8683015673796501
0.06399999999999997       1.8690810252883125
0.06433333333333331       1.8698647195005702
0.06466666666666664       1.8706526539709403
0.06499999999999997       1.8714448286994232
0.06533333333333331       1.8722412476288528
0.06566666666666665       1.873041914777832
0.06599999999999998       1.8738468301463624
0.06633333333333331       1.874655997741374
0.06666666666666664       1.8754694216456915
0.06699999999999998       1.8762871018593157
0.06733333333333331       1.8771090424534076
0.06766666666666664       1.8779352475751494
0.06799999999999998       1.8787657172245413
0.06833333333333332       1.8796004555371115
0.06866666666666665       1.8804394667245377
0.06899999999999998       1.8812827507868202
0.06933333333333332       1.882130311923991
0.06966666666666664       1.8829821544123644
0.06999999999999998       1.8838382782519407
0.07033333333333332       1.8846986877073975
0.07066666666666664       1.885563387119827
0.07099999999999998       1.8864323764892297
0.07133333333333332       1.887305660145071
0.07166666666666666       1.888183242493366
0.07199999999999998       1.8890651235341152
0.07233333333333332       1.889951307661717
0.07266666666666664       1.8908417993472557
0.07299999999999998       1.8917365985907322
0.07333333333333332       1.8926357098516244
0.07366666666666664       1.8935391376662356
0.07399999999999998       1.8944468820345663
0.07433333333333332       1.8953589474813233
0.07466666666666666       1.89627533860818
0.07499999999999998       1.897196055415137
0.07533333333333332       1.8981211024922808
0.07566666666666665       1.8990504845068084
0.07599999999999998       1.8999842014587198
0.07633333333333332       1.9009222580036365
0.07666666666666665       1.9018646588744323
0.07699999999999999       1.9028114040711086
0.07733333333333332       1.903762498314975
0.07766666666666666       1.9047179464047437
0.07799999999999999       1.9056777483404146
0.07833333333333332       1.906641908909146
0.07866666666666665       1.9076104329756443
0.07899999999999999       1.908583320539911
0.07933333333333333       1.9095605764551113
0.07966666666666666       1.9105422056521109
0.07999999999999999       1.9115282081309102
0.08033333333333333       1.9125185888108447
0.08066666666666666       1.9135133526891026
0.08099999999999999       1.9145124997656853
0.08133333333333333       1.9155160350262614
0.08166666666666665       1.9165239635345097
0.08199999999999999       1.9175362852904305
0.08233333333333333       1.9185530053461943
0.08266666666666667       1.9195741288321375
0.08299999999999999       1.9205996557482605
0.08333333333333333       1.9216295912134045
0.08366666666666667       1.922663940424735
0.08399999999999999       1.923702703382253
0.08433333333333333       1.924745885271639
0.08466666666666665       1.9257934913570627
0.08499999999999999       1.9268455216385245
0.08533333333333333       1.9279019813687204
0.08566666666666667       1.928962875878998
0.086                     1.9300282051693571
0.08633333333333333       1.9310979745596846
0.08666666666666667       1.9321721894486836
0.087                     1.9332508498363552
0.08733333333333333       1.934333961109953
0.08766666666666666       1.9354215287357175
0.088                     1.9365135527136483
0.08833333333333333       1.937610038498549
0.08866666666666667       1.9387109916243779
0.089                     1.9398164120911352
0.08933333333333333       1.9409263054213552
0.08966666666666667       1.9420406772168983
0.09                      1.943159527477765
0.09033333333333333       1.944282861794406
0.09066666666666666       1.9454106858367717
0.091                     1.9465429996048627
0.09133333333333334       1.9476798087572311
0.09166666666666667       1.9488211190321076
0.092                     1.9499669304294922
0.09233333333333334       1.9511172486762296
0.09266666666666667       1.9522720795790205
0.093                     1.9534314231378644
0.09333333333333334       1.9545952851480917
0.09366666666666666       1.9557636714850648
0.094                     1.956936582148785
0.09433333333333334       1.958114023003259
0.09466666666666666       1.9592959999927106
0.095                     1.9604825131171406
0.09533333333333334       1.961673568309429
0.09566666666666668       1.9628691715828592
0.096                     1.9640693229374313
0.09633333333333335       1.9652740283750978
0.09666666666666668       1.966483293978401
0.097                     1.967697119747341
0.09733333333333334       1.968915511753144
0.09766666666666667       1.9701384761478142
0.098                     1.971366012931352
0.09833333333333334       1.9725981282444596
0.09866666666666668       1.9738348283088087
0.099                     1.9750761131244
0.09933333333333336       1.9763219889016173
0.09966666666666668       1.9775724619320074
0.1                       1.9788275322155708
0.10033333333333334       1.9800872060325814
0.10066666666666667       1.9813514897446711
0.101                     1.9826203833518408
0.10133333333333334       1.9838938932044634
0.10166666666666668       1.985172025734469
0.10200000000000001       1.9864547809418576
0.10233333333333336       1.9877421652473155
0.10266666666666668       1.9890341851532845
0.10300000000000001       1.990330840659765
0.10333333333333335       1.9916321382579703
0.10366666666666667       1.9929380845210716
0.10400000000000001       1.994248679449069
0.10433333333333335       1.9955639296039207
0.10466666666666669       1.9968838416297467
0.10500000000000001       1.9982084155265476
0.10533333333333336       1.9995376579272448
0.10566666666666669       2.0008715755471287
0.10600000000000001       2.002210168386201
0.10633333333333335       2.0035534431485686
0.10666666666666667       2.0049014066209176
0.10700000000000001       2.0062540588032483
0.10733333333333335       2.0076114064710797
0.10766666666666669       2.008973456482719
0.10800000000000001       2.010340208838166
0.10833333333333336       2.0117116703845777
0.10866666666666669       2.0130878480521113
0.10900000000000001       2.014468741840767
0.10933333333333335       2.0158543586695683
0.10966666666666668       2.017244705540754
0.11000000000000001       2.0186397824543256
0.11033333333333335       2.0200395964014035
0.11066666666666669       2.0214441544565442
0.11100000000000002       2.0228534566197474
0.11133333333333337       2.0242675099544667
0.11166666666666669       2.02568632160781
0.11200000000000002       2.0271098915797774
0.11233333333333335       2.028538227006393
0.11266666666666668       2.029971335107553
0.11300000000000002       2.0314092158832593
0.11333333333333336       2.032851876542343
0.1136666666666667        2.034299324377734
0.11400000000000002       2.035751559389432
0.11433333333333337       2.0372085888593183
0.1146666666666667        2.0386704201535992
0.11500000000000002       2.0401370532722742
0.11533333333333336       2.041608495570517
0.11566666666666668       2.0430847544880555
0.11600000000000002       2.04456583002489
0.11633333333333336       2.0460517296097347
0.1166666666666667        2.047542460756086
0.11700000000000002       2.0490380234639454
0.11733333333333337       2.0505384252358136
0.1176666666666667        2.052043673659212
0.11800000000000002       2.0535537687341394
0.11833333333333336       2.0550687180371363
0.11866666666666668       2.056588529229999
0.11900000000000002       2.058113202312728
0.11933333333333336       2.059642744936156
0.1196666666666667        2.0611771648366104
0.12000000000000002       2.062716462014091
0.12033333333333338       2.0642606441939817
0.1206666666666667        2.0658097191873988
0.12100000000000002       2.0673636869943426
0.12133333333333336       2.0689225554150044
0.12166666666666669       2.070486332335552
0.12200000000000003       2.072055017755985
0.12233333333333336       2.073628619551565
0.1226666666666667        2.0752071456837737
0.12300000000000003       2.0767905961526125
0.12333333333333338       2.0783789789086753
0.1236666666666667        2.0799723019890246
0.12400000000000003       2.0815705653936605
0.12433333333333337       2.083173777148778
0.12466666666666669       2.084781945367289
0.12500000000000003       2.0863950700491936
0.12533333333333335       2.0880131592965547
0.1256666666666667        2.089636221298406
0.12600000000000003       2.0912642560547474
0.12633333333333338       2.092897271743782
0.1266666666666667        2.0945352766309364
0.12700000000000003       2.0961782707162127
0.12733333333333335       2.0978262622542263
0.1276666666666667        2.0994792595870773
0.12800000000000003       2.101137262714765
0.12833333333333335       2.1028002799685974
0.1286666666666667        2.1044683197676237
0.12900000000000003       2.106141382111844
0.12933333333333338       2.1078194754095354
0.1296666666666667        2.109502608156979
0.13000000000000003       2.111190780354174
0.13033333333333336       2.1128840004866514
0.1306666666666667        2.1145822771282057
0.13100000000000003       2.116285610278838
0.13133333333333336       2.117994008501614
0.1316666666666667        2.119707480448132
0.13200000000000003       2.121426026118392
0.13233333333333339       2.1231496541532837
0.1326666666666667        2.1248783732824963
0.13300000000000003       2.1266121835060314
0.13333333333333336       2.1283510935428898
0.1336666666666667        2.130095112201146
0.13400000000000004       2.1318442394808006
0.13433333333333336       2.1335984841792603
0.1346666666666667        2.1353578551832775
0.13500000000000004       2.1371223524928538
0.1353333333333334        2.1388919849840953
0.1356666666666667        2.1406667616227306
0.13600000000000004       2.1424466824087607
0.13633333333333336       2.14423175629729
0.13666666666666671       2.146021992333323
0.13700000000000004       2.147817390516861
0.13733333333333336       2.1496179598823058
0.13766666666666671       2.151423709554241
0.13800000000000004       2.153234639532667
0.1383333333333334        2.155050758931588
0.13866666666666672       2.15687207695547
0.13900000000000004       2.158698593604315
0.13933333333333336       2.160530318072032
0.13966666666666672       2.16236725964328
0.14000000000000004       2.1642094183180607
0.14033333333333337       2.1660568033704983
0.14066666666666672       2.1679094241657557
0.14100000000000004       2.1697672807038333
0.1413333333333334        2.17163038233938
0.14166666666666672       2.1734987385183766
0.14200000000000004       2.1753723492408232
0.14233333333333337       2.1772512239422093
0.14266666666666672       2.179135372149647
0.14300000000000004       2.181024793863137
0.14333333333333337       2.182919498599323
0.14366666666666672       2.1848194959667713
0.14400000000000004       2.186724785965481
0.1443333333333334        2.188635378193573
0.14466666666666672       2.190551282341384
0.14500000000000005       2.1924724984089154
0.14533333333333337       2.194399036076084
0.14566666666666672       2.1963309051153255
0.14600000000000005       2.1982681055266404
0.14633333333333337       2.2002106470720673
0.14666666666666672       2.2021585396064673
0.14700000000000005       2.204111783129841
0.1473333333333334        2.2060703874866765
0.14766666666666672       2.20803436261459
0.14800000000000005       2.2100037085135824
0.14833333333333337       2.2119784351109204
0.14866666666666672       2.2139585524273095
0.14900000000000005       2.21594406046275
0.14933333333333337       2.2179349692276213
0.14966666666666673       2.219931288826052
0.15000000000000005       2.221933019258043
0.1503333333333334        2.2239401706174236
0.15066666666666673       2.2259527530920833
0.15100000000000005       2.227970766682023
0.15133333333333338       2.229994221564859
0.15166666666666673       2.2320231280125853
0.15200000000000005       2.2340574860252027
0.15233333333333338       2.236097305864455
0.15266666666666673       2.2381425978867857
0.15300000000000005       2.240193362092195
0.1533333333333334        2.2422496088269
0.15366666666666673       2.2443113485321384
0.15400000000000005       2.2463785812079107
0.15433333333333338       2.248451317285255
0.15466666666666673       2.250529567290553
0.15500000000000005       2.252613331223805
0.15533333333333338       2.2547026196012205
0.15566666666666673       2.256797443034679
0.15600000000000006       2.2588978015241805
0.1563333333333334        2.261003705671457
0.15666666666666673       2.263115166174242
0.15700000000000006       2.2652321830325355
0.15733333333333338       2.2673547669339493
0.15766666666666673       2.269482928662428
0.15800000000000006       2.271616668217972
0.1583333333333334        2.273755996374432
0.15866666666666673       2.2759009240023245
0.15900000000000006       2.2780514511016507
0.1593333333333334        2.2802075885328605
0.15966666666666673       2.2823693472534097
0.16000000000000006       2.284536727263299
0.16033333333333338       2.2867097395099427
0.16066666666666674       2.2888883950381014
0.16100000000000006       2.291072693847775
0.1613333333333334        2.293262646973712
0.16166666666666674       2.2954582655483473
0.16200000000000006       2.297659549571682
0.1623333333333334        2.299866510166165
0.16266666666666674       2.302079158552282
0.16300000000000006       2.304297494730034
0.16333333333333339       2.3065215299099457
0.16366666666666674       2.3087512754009283
0.16400000000000006       2.3109867312029815
0.16433333333333341       2.3132279086150853
0.16466666666666674       2.3154748190349523
0.16500000000000006       2.3177274624625843
0.16533333333333342       2.3199858502857933
0.16566666666666674       2.322249993991479
0.16600000000000006       2.3245198935796423
0.1663333333333334        2.3267955605273105
0.16666666666666674       2.3290770064109547
0.16700000000000007       2.3313642312305767
0.16733333333333342       2.3336572465528036
0.16766666666666674       2.3359560640440677
0.16800000000000007       2.33826068370437
0.16833333333333342       2.340571117190328
0.16866666666666674       2.3428873762587243
0.16900000000000007       2.34520946090956
0.1693333333333334        2.3475373828898336
0.16966666666666674       2.3498711540470745
0.17000000000000007       2.352210774381284
0.17033333333333342       2.3545562557302353
0.17066666666666674       2.3569076100326014
0.17100000000000007       2.359264837288383
0.17133333333333342       2.3616279494265284
0.17166666666666675       2.363996958477254
0.17200000000000007       2.366371864440562
0.1723333333333334        2.368752679336972
0.17266666666666675       2.3711394152886514
0.17300000000000007       2.3735320722955997
0.17333333333333342       2.3759306624703176
0.17366666666666675       2.378335198027325
0.17400000000000007       2.380745678966623
0.17433333333333342       2.383162117493098
0.17466666666666675       2.3855845259140334
0.17500000000000007       2.3880129042294307
0.1753333333333334        2.390447264736972
0.17566666666666675       2.392887619837119
0.17600000000000007       2.395333969529874
0.17633333333333343       2.397786326206127
0.17666666666666675       2.4002447023599354
0.17700000000000007       2.4027090979913006
0.17733333333333343       2.4051795255847384
0.17766666666666675       2.4076559977283196
0.17800000000000007       2.410138514422046
0.1783333333333334        2.41262708824448
0.17866666666666675       2.4151217318781275
0.17900000000000008       2.417622445322991
0.17933333333333343       2.4201292412521003
0.17966666666666675       2.422642132442826
0.18000000000000008       2.425161118895168
0.18033333333333343       2.4276862133770534
0.18066666666666675       2.4302174287611424
0.18100000000000008       2.4327547650474357
0.1813333333333334        2.435298235099183
0.18166666666666675       2.437847851884771
0.18200000000000008       2.4404036154041986
0.18233333333333343       2.4429655386164733
0.18266666666666675       2.44553363458614
0.18300000000000008       2.4481079033131987
0.18333333333333343       2.4506883578528496
0.18366666666666676       2.4532750113662347
0.18400000000000008       2.4558678638533555
0.1843333333333334        2.4584669284660428
0.18466666666666676       2.4610722184624803
0.18500000000000008       2.4636837338426685
0.18533333333333343       2.466301487855513
0.18566666666666676       2.4689254938566836
0.18600000000000008       2.4715557518461804
0.18633333333333343       2.4741922751704295
0.18666666666666676       2.4768350772830345
0.18700000000000008       2.479484158183997
0.1873333333333334        2.4821395313177104
0.18766666666666676       2.4848012102361663
0.18800000000000008       2.487469194939366
0.18833333333333344       2.490143498970125
0.18866666666666676       2.4928241359792773
0.18900000000000008       2.4955111059668234
0.18933333333333344       2.498204422574456
0.18966666666666676       2.500904099552311
0.19000000000000009       2.5036101369003885
0.1903333333333334        2.5063225483597176
0.19066666666666676       2.5090413477801974
0.1910000000000001        2.511766535161828
0.19133333333333344       2.514498124345438
0.19166666666666676       2.5172361292811547
0.1920000000000001        2.5199805499689782
0.19233333333333344       2.5227314003500028
0.19266666666666676       2.5254886944750528
0.1930000000000001        2.528252432344129
0.1933333333333334        2.5310226279990595
0.19366666666666676       2.5337992955918383
0.1940000000000001        2.536582435122467
0.19433333333333344       2.539372060733981
0.19466666666666677       2.54216818668002
0.1950000000000001        2.5449708129605852
0.19533333333333344       2.5477799538203953
0.19566666666666677       2.5505956236152163
0.1960000000000001        2.553417822345049
0.19633333333333342       2.556246564356774
0.19666666666666677       2.5590818641087663
0.1970000000000001        2.561923721601027
0.19733333333333344       2.564772151283082
0.19766666666666677       2.567627167716402
0.1980000000000001        2.5704887709009876
0.19833333333333344       2.573356975389497
0.19866666666666677       2.576231795846986
0.1990000000000001        2.5791132322734533
0.19933333333333342       2.582001299325183
0.19966666666666677       2.584896011771305
0.2000000000000001        2.5877973696118213
0.20033333333333345       2.5907053876071298
0.20066666666666677       2.593620080630938
0.2010000000000001        2.5965414486832463
0.20133333333333345       2.5994695066290663
0.20166666666666677       2.6024042694471796
0.2020000000000001        2.6053457371375885
0.20233333333333342       2.6082939246704173
0.20266666666666677       2.611248847130029
0.2030000000000001        2.614210504516424
0.20333333333333345       2.6171789119053477
0.20366666666666677       2.6201540844872473
0.2040000000000001        2.6231360222621247
0.20433333333333345       2.626124740411851
0.20466666666666677       2.6291202542334733
0.2050000000000001        2.632122563726993
0.20533333333333342       2.6351316841809185
0.20566666666666678       2.638147630999411
0.2060000000000001        2.6411704041824717
0.20633333333333345       2.6442000191257633
0.20666666666666678       2.6472364913410775
0.2070000000000001        2.6502798208284157
0.20733333333333345       2.6533300230911134
0.20766666666666678       2.6563871137491173
0.2080000000000001        2.6594510928024278
0.20833333333333343       2.662521975862576
0.20866666666666678       2.665599778658187
0.2090000000000001        2.6686845011892624
0.20933333333333345       2.6717761591760536
0.20966666666666678       2.674874768456398
0.2100000000000001        2.6779803290302953
0.21033333333333346       2.6810928567272483
0.21066666666666678       2.684212367494836
0.2110000000000001        2.6873388613330604
0.21133333333333343       2.690472354181209
0.21166666666666678       2.6936128620971402
0.2120000000000001        2.6967603850808555
0.21233333333333346       2.6999149391819657
0.21266666666666678       2.7030765405691493
0.2130000000000001        2.706245189242409
0.21333333333333346       2.7094209013622184
0.21366666666666678       2.712603693208623
0.2140000000000001        2.715793564781623
0.21433333333333343       2.7189905323531036
0.21466666666666678       2.7221946123150222
0.2150000000000001        2.72540580466738
0.21533333333333346       2.728624125794019